% Model:              SCtape_pde_2D_c43a_20160729_ancien.mph
% Version:            COMSOL 6.2.0.658
% Date:               Jan 15 2026, 13:32
% Table:              Table 1 - instantaneous AC losses pd [W/m]
% Time (s)               instantaneous AC losses [W/m] (W/m)
0                        5.129305955063576E-230
2.0E-4                   9.274531417141852E-9
4.0E-4                   0.006161867059732188
6.000000000000001E-4     0.014176413671157753
8.0E-4                   0.03147341586102942
0.001                    0.055428480753768085
0.0012000000000000001    0.08340419014329006
0.0014                   0.11572645189030814
0.0016                   0.14745200860131655
0.0018000000000000002    0.17786936285522778
0.002                    0.20328530156662702
0.0022                   0.2256266266867615
0.0024000000000000002    0.24052755877785462
0.0026000000000000003    0.2492741910173919
0.0028                   0.25290174533987814
0.003                    0.25041505846354567
0.0032                   0.24175258724151255
0.0034000000000000002    0.2267568525589313
0.0036000000000000003    0.21083095649422356
0.0038                   0.18964055726837056
0.004                    0.16512851980021057
0.004200000000000001     0.13861940863035513
0.0044                   0.1106468592076778
0.0046                   0.08300084525602336
0.0048000000000000004    0.055697875314320466
0.005                    0.03196380619927422
0.005200000000000001     0.014661501003956476
0.0054                   0.00557721783101279
0.0056                   0.0019040626270288611
0.0058000000000000005    5.90089125350198E-4
0.006                    1.6646633561994643E-4
0.006200000000000001     8.718718148809318E-5
0.0064                   7.332940715701278E-5
0.0066                   3.186311896804046E-4
0.0068000000000000005    6.934422672437027E-4
0.007                    0.001061325339583226
0.007200000000000001     0.0021044509915474456
0.0074                   0.003955413939022918
0.0076                   0.006839757490830097
0.0078000000000000005    0.011007621190921309
0.008                    0.015776433820551092
0.0082                   0.02363456049927078
0.008400000000000001     0.03309316761172181
0.0086                   0.04523900470858748
0.0088                   0.059517588071868764
0.009000000000000001     0.07473642426836301
0.0092                   0.0940367956738249
0.0094                   0.11463135352726504
0.009600000000000001     0.13972563703318713
0.0098                   0.1618180017511561
0.01                     0.1870600850937733
0.0102                   0.21133710743835435
0.010400000000000001     0.2381748399426809
0.0106                   0.258874698175239
0.0108                   0.2809431328996195
0.011000000000000001     0.2997620284687418
0.0112                   0.3149794147469658
0.0114                   0.3276707484970752
0.011600000000000001     0.33366849701633855
0.0118                   0.3403677609974684
0.012                    0.3386580534672399
0.0122                   0.33874829629258063
0.012400000000000001     0.33206854898606447
0.0126                   0.3194407679799425
0.0128                   0.3074023064042884
0.013000000000000001     0.29104649071606925
0.0132                   0.2735647254624938
0.0134                   0.2516300377881242
0.013600000000000001     0.2240028129573466
0.013800000000000002     0.20120207453975839
0.014                    0.17101057439742687
0.0142                   0.14323238053193849
0.014400000000000001     0.11297986013216636
0.0146                   0.0834118669204752
0.0148                   0.0567901590110975
0.015000000000000001     0.033246460320788526
0.0152                   0.015317246631119922
0.0154                   0.005798811503744239
0.015600000000000001     0.001969240544743876
0.0158                   6.089312307949268E-4
0.016                    1.7166743284613537E-4
0.0162                   8.80767772758034E-5
0.0164                   7.082747867776753E-5
0.0166                   3.1412552880221713E-4
0.016800000000000002     6.927097160334994E-4
0.017                    0.001061281541573667
0.0172                   0.0021033040797210903
0.017400000000000002     0.0039102863080934976
0.0176                   0.0068519014068028315
0.0178                   0.0110037163359259
0.018000000000000002     0.015689613052572115
0.0182                   0.023659671856984563
0.0184                   0.03294609372817575
0.018600000000000002     0.04518019874195138
0.0188                   0.05955304874606261
0.019                    0.07468341558787006
0.019200000000000002     0.09392713062192855
0.0194                   0.11444658687774945
0.0196                   0.13959587276657215
0.0198                   0.1615973517134526
0.02                     0.1869446608961382
